{
  "elements": [
    {
      "symbol": "H",
      "name": "Hydrogen",
      "appearance": "Nonmetal",
      "atomicMass": 1.008,
      "atomicNumber": 1,
      "groupBlock": "Nonmetal",
      "period": 1,
      "elementCategory": "Diatomic nonmetal",
      "standardState": "Gas",
      "electronConfiguration": "1s1",
      "oxidationStates": "+1, -1",
      "atomicRadius": "120 pm",
      "electronAffinity": "0.754 eV",
      "ionizationEnergy": "13.598 eV",
      "meltingPoint": "13.81 K",
      "boilingPoint": "20.28 K",
      "density": "0.00008988 g/cm3",
      "yearDiscovered": 1766
    },
    {
      "symbol": "He",
      "name": "Helium",
      "appearance": "Noble gas",
      "atomicMass": 4.002602,
      "atomicNumber": 2,
      "groupBlock": "Noble gas",
      "period": 1,
      "elementCategory": "Noble gas",
      "standardState": "Gas",
      "electronConfiguration": "1s2",
      "oxidationStates": "0",
      "atomicRadius": "140 pm",
      "electronAffinity": "0 eV",
      "ionizationEnergy": "24.587 eV",
      "meltingPoint": "0.95 K",
      "boilingPoint": "4.22 K",
      "density": "0.0001785 g/cm3",
      "yearDiscovered": 1895
    },
    {
      "symbol": "Li",
      "name": "Lithium",
      "appearance": "Silvery-white",
      "atomicMass": 6.94,
      "atomicNumber": 3,
      "groupBlock": "Alkali metal",
      "period": 2,
      "elementCategory": "Alkali metal",
      "standardState": "Solid",
      "electronConfiguration": "[He] 2s1",
      "oxidationStates": "+1",
      "atomicRadius": "145 pm",
      "electronAffinity": "0.618 eV",
      "ionizationEnergy": "5.392 eV",
      "meltingPoint": "453.65 K",
      "boilingPoint": "1615 K",
      "density": "0.534 g/cm3",
      "yearDiscovered": 1817
    }
  ]
}
