{
  "elements": [
    {
      "symbol": "H",
      "name": "Hydrogen",
      "atomicMass": "1.008 u",
      "atomicNumber": "1",
      "chemicalGroup": "Nonmetal",
      "period": "1",
      "groupNumber": "1",
      "standardState": "Gas",
      "electronConfiguration": "1s1",
      "oxidationStates": "-1, +1",
      "atomicRadius": "120 pm",
      "electronAffinity": "72.769 kJ/mol",
      "ionizationEnergy": "1312.0 kJ/mol",
      "meltingPoint": "14.01 K",
      "boilingPoint": "20.28 K",
      "density": "0.00008988 g/cm3",
      "yearDiscovered": "1766",
      "wikipediaURL": null,
      "localURL": null
    },
    {
      "symbol": "He",
      "name": "Helium",
      "atomicMass": "4.00 u",
      "atomicNumber": "2",
      "chemicalGroup": "Noble gas",
      "period": "1",
      "groupNumber": "18",
      "standardState": "Gas",
      "electronConfiguration": "1s2",
      "oxidationStates": "0",
      "atomicRadius": "140 pm",
      "electronAffinity": "0 kJ/mol",
      "ionizationEnergy": "2372.3 kJ/mol",
      "meltingPoint": "None",
      "boilingPoint": "4.22 K",
      "density": "0.0001786 g/cm3",
      "yearDiscovered": "1868",
      "wikipediaURL": null,
      "localURL": null
    },
    {
      "symbol": "Li",
      "name": "Lithium",
      "atomicMass": "6.94 u",
      "atomicNumber": "3",
      "chemicalGroup": "Alkali metal",
      "period": "2",
      "groupNumber": "1",
      "standardState": "Solid",
      "electronConfiguration": "[He] 2s1",
      "oxidationStates": "+1",
      "atomicRadius": "182 pm",
      "electronAffinity": "59.6326 kJ/mol",
      "ionizationEnergy": "520.2 kJ/mol",
      "meltingPoint": "453.65 K",
      "boilingPoint": "1615 K",
      "density": "0.534 g/cm3",
      "yearDiscovered": "1817",
      "wikipediaURL": null,
      "localURL": null
    },
    {
      "symbol": "Be",
      "name": "Beryllium",
      "atomicMass": "9.01 u",
      "atomicNumber": "4",
      "chemicalGroup": "Alkaline earth metal",
      "period": "2",
      "groupNumber": "2",
      "standardState": "Solid",
      "electronConfiguration": "[He] 2s2",
      "oxidationStates": "+2",
      "atomicRadius": "153 pm",
      "electronAffinity": "0 kJ/mol",
      "ionizationEnergy": "899.5 kJ/mol",
      "meltingPoint": "1560 K",
      "boilingPoint": "2742 K",
      "density": "1.85 g/cm3",
      "yearDiscovered": "1798",
      "wikipediaURL": null,
      "localURL": null
    },
    {
      "symbol": "B",
      "name": "Boron",
      "atomicMass": "10.81 u",
      "atomicNumber": "5",
      "chemicalGroup": "Metalloid",
      "period": "2",
      "groupNumber": "13",
      "standardState": "Solid",
      "electronConfiguration": "[He] 2s2 2p1",
      "oxidationStates": "+3",
      "atomicRadius": "192 pm",
      "electronAffinity": "26.989 kJ/mol",
      "ionizationEnergy": "800.6 kJ/mol",
      "meltingPoint": "2349 K",
      "boilingPoint": "4200 K",
      "density": "2.34 g/cm3",
      "yearDiscovered": "1808",
      "wikipediaURL": null,
      "localURL": null
    },
    {
      "symbol": "C",
      "name": "Carbon",
      "atomicMass": "12.01 u",
      "atomicNumber": "6",
      "chemicalGroup": "Nonmetal",
      "period": "2",
      "groupNumber": "14",
      "standardState": "Solid",
      "electronConfiguration": "[He] 2s2 2p2",
      "oxidationStates": "-4, +4",
      "atomicRadius": "170 pm",
      "electronAffinity": "153.9 kJ/mol",
      "ionizationEnergy": "1086.5 kJ/mol",
      "meltingPoint": "3823 K",
      "boilingPoint": "None",
      "density": "2.267 g/cm3",
      "yearDiscovered": "Ancient",
      "wikipediaURL": null,
      "localURL": null
    },
    {
      "symbol": "N",
      "name": "Nitrogen",
      "atomicMass": "14.01 u",
      "atomicNumber": "7",
      "chemicalGroup": "Nonmetal",
      "period": "2",
      "groupNumber": "15",
      "standardState": "Gas",
      "electronConfiguration": "[He] 2s2 2p3",
      "oxidationStates": "-3, +5",
      "atomicRadius": "155 pm",
      "electronAffinity": "-6.8 kJ/mol",
      "ionizationEnergy": "1402.3 kJ/mol",
      "meltingPoint": "63.15 K",
      "boilingPoint": "77.36 K",
      "density": "0.0012506 g/cm3",
      "yearDiscovered": "1772",
      "wikipediaURL": null,
      "localURL": null
    },
    {
      "symbol": "O",
      "name": "Oxygen",
      "atomicMass": "16.00 u",
      "atomicNumber": "8",
      "chemicalGroup": "Nonmetal",
      "period": "2",
      "groupNumber": "16",
      "standardState": "Gas",
      "electronConfiguration": "[He] 2s2 2p4",
      "oxidationStates": "-2",
      "atomicRadius": "152 pm",
      "electronAffinity": "141 kJ/mol",
      "ionizationEnergy": "1313.9 kJ/mol",
      "meltingPoint": "54.36 K",
      "boilingPoint": "90.20 K",
      "density": "0.001429 g/cm3",
      "yearDiscovered": "1774",
      "wikipediaURL": null,
      "localURL": null
    },
    {
      "symbol": "F",
      "name": "Fluorine",
      "atomicMass": "19.00 u",
      "atomicNumber": "9",
      "chemicalGroup": "Halogen",
      "period": "2",
      "groupNumber": "17",
      "standardState": "Gas",
      "electronConfiguration": "[He] 2s2 2p5",
      "oxidationStates": "-1",
      "atomicRadius": "147 pm",
      "electronAffinity": "328 kJ/mol",
      "ionizationEnergy": "1681.0 kJ/mol",
      "meltingPoint": "53.48 K",
      "boilingPoint": "85.03 K",
      "density": "0.001696 g/cm3",
      "yearDiscovered": "1886",
      "wikipediaURL": null,
      "localURL": null
    },
    {
      "symbol": "Ne",
      "name": "Neon",
      "atomicMass": "20.18 u",
      "atomicNumber": "10",
      "chemicalGroup": "Noble gas",
      "period": "2",
      "groupNumber": "18",
      "standardState": "Gas",
      "electronConfiguration": "[He] 2s2 2p6",
      "oxidationStates": "0",
      "atomicRadius": "154 pm",
      "electronAffinity": "0 kJ/mol",
      "ionizationEnergy": "2080.7 kJ/mol",
      "meltingPoint": "24.56 K",
      "boilingPoint": "27.07 K",
      "density": "0.0008999 g/cm3",
      "yearDiscovered": "1898",
      "wikipediaURL": null,
      "localURL": null
    },
    {
      "symbol": "Na",
      "name": "Sodium",
      "atomicMass": "22.99 u",
      "atomicNumber": "11",
      "chemicalGroup": "Alkali metal",
      "period": "3",
      "groupNumber": "1",
      "standardState": "Solid",
      "electronConfiguration": "[Ne] 3s1",
      "oxidationStates": "+1",
      "atomicRadius": "227 pm",
      "electronAffinity": "52.867 kJ/mol",
      "ionizationEnergy": "495.8 kJ/mol",
      "meltingPoint": "370.87 K",
      "boilingPoint": "1156 K",
      "density": "0.968 g/cm3",
      "yearDiscovered": "1807",
      "wikipediaURL": null,
      "localURL": null
    },
    {
      "symbol": "Mg",
      "name": "Magnesium",
      "atomicMass": "24.31 u",
      "atomicNumber": "12",
      "chemicalGroup": "Alkaline earth metal",
      "period": "3",
      "groupNumber": "2",
      "standardState": "Solid",
      "electronConfiguration": "[Ne] 3s2",
      "oxidationStates": "+2",
      "atomicRadius": "173 pm",
      "electronAffinity": "0 kJ/mol",
      "ionizationEnergy": "737.7 kJ/mol",
      "meltingPoint": "923 K",
      "boilingPoint": "1363 K",
      "density": "1.738 g/cm3",
      "yearDiscovered": "1808",
      "wikipediaURL": null,
      "localURL": null
    },
    {
      "symbol": "Al",
      "name": "Aluminum",
      "atomicMass": "26.98 u",
      "atomicNumber": "13",
      "chemicalGroup": "Post-transition metal",
      "period": "3",
      "groupNumber": "13",
      "standardState": "Solid",
      "electronConfiguration": "[Ne] 3s2 3p1",
      "oxidationStates": "+3",
      "atomicRadius": "184 pm",
      "electronAffinity": "41.762 kJ/mol",
      "ionizationEnergy": "577.5 kJ/mol",
      "meltingPoint": "933.47 K",
      "boilingPoint": "2743 K",
      "density": "2.698 g/cm3",
      "yearDiscovered": "1825",
      "wikipediaURL": null,
      "localURL": null
    },
    {
      "symbol": "Si",
      "name": "Silicon",
      "atomicMass": "28.09 u",
      "atomicNumber": "14",
      "chemicalGroup": "Metalloid",
      "period": "3",
      "groupNumber": "14",
      "standardState": "Solid",
      "electronConfiguration": "[Ne] 3s2 3p2",
      "oxidationStates": "-4, +4",
      "atomicRadius": "210 pm",
      "electronAffinity": "134.068 kJ/mol",
      "ionizationEnergy": "786.5 kJ/mol",
      "meltingPoint": "1687 K",
      "boilingPoint": "3538 K",
      "density": "2.329 g/cm3",
      "yearDiscovered": "1854",
      "wikipediaURL": null,
      "localURL": null
    },
    {
      "symbol": "P",
      "name": "Phosphorus",
      "atomicMass": "30.97 u",
      "atomicNumber": "15",
      "chemicalGroup": "Nonmetal",
      "period": "3",
      "groupNumber": "15",
      "standardState": "Solid",
      "electronConfiguration": "[Ne] 3s2 3p3",
      "oxidationStates": "-3, +5",
      "atomicRadius": "180 pm",
      "electronAffinity": "72.037 kJ/mol",
      "ionizationEnergy": "1011.8 kJ/mol",
      "meltingPoint": "317.30 K",
      "boilingPoint": "553.65 K",
      "density": "1.82 g/cm3",
      "yearDiscovered": "1669",
      "wikipediaURL": null,
      "localURL": null
    },
    {
      "symbol": "S",
      "name": "Sulfur",
      "atomicMass": "32.07 u",
      "atomicNumber": "16",
      "chemicalGroup": "Nonmetal",
      "period": "3",
      "groupNumber": "16",
      "standardState": "Solid",
      "electronConfiguration": "[Ne] 3s2 3p4",
      "oxidationStates": "-2, +6",
      "atomicRadius": "180 pm",
      "electronAffinity": "200 kJ/mol",
      "ionizationEnergy": "999.6 kJ/mol",
      "meltingPoint": "388.36 K",
      "boilingPoint": "717.87 K",
      "density": "2.067 g/cm3",
      "yearDiscovered": "Ancient",
      "wikipediaURL": null,
      "localURL": null
    },
    {
      "symbol": "Cl",
      "name": "Chlorine",
      "atomicMass": "35.45 u",
      "atomicNumber": "17",
      "chemicalGroup": "Halogen",
      "period": "3",
      "groupNumber": "17",
      "standardState": "Gas",
      "electronConfiguration": "[Ne] 3s2 3p5",
      "oxidationStates": "-1",
      "atomicRadius": "175 pm",
      "electronAffinity": "349.0 kJ/mol",
      "ionizationEnergy": "1251.2 kJ/mol",
      "meltingPoint": "171.6 K",
      "boilingPoint": "239.11 K",
      "density": "0.003214 g/cm3",
      "yearDiscovered": "1774",
      "wikipediaURL": null,
      "localURL": null
    },
    {
      "symbol": "Ar",
      "name": "Argon",
      "atomicMass": "39.95 u",
      "atomicNumber": "18",
      "chemicalGroup": "Noble gas",
      "period": "3",
      "groupNumber": "18",
      "standardState": "Gas",
      "electronConfiguration": "[Ne] 3s2 3p6",
      "oxidationStates": "0",
      "atomicRadius": "188 pm",
      "electronAffinity": "0 kJ/mol",
      "ionizationEnergy": "1520.6 kJ/mol",
      "meltingPoint": "83.80 K",
      "boilingPoint": "87.30 K",
      "density": "0.0017837 g/cm3",
      "yearDiscovered": "1894",
      "wikipediaURL": null,
      "localURL": null
    }
  ]
}