{
  "elements": [
    {
      "symbol": "H",
      "name": "Hydrogen",
      "atomicMass": "1.008 u",
      "atomicNumber": "1",
      "chemicalGroup": "Nonmetal",
      "period": "1",
      "groupNumber": "1",
      "standardState": "Gas",
      "electronConfiguration": "1s1",
      "oxidationStates": "-1, +1",
      "atomicRadius": "120 pm",
      "electronAffinity": "72.769 kJ/mol",
      "ionizationEnergy": "1312.0 kJ/mol",
      "meltingPoint": "14.01 K",
      "boilingPoint": "20.28 K",
      "density": "0.00008988 g/cm3",
      "yearDiscovered": "1766",
      "wikipediaURL": null,
      "localURL": null
    },
    {
      "symbol": "He",
      "name": "Helium",
      "atomicMass": "4.002602 u",
      "atomicNumber": "2",
      "chemicalGroup": "Noble gas",
      "period": "1",
      "groupNumber": "18",
      "standardState": "Gas",
      "electronConfiguration": "1s2",
      "oxidationStates": "0",
      "atomicRadius": "140 pm",
      "electronAffinity": "0 kJ/mol",
      "ionizationEnergy": "2372.3 kJ/mol",
      "meltingPoint": "0.95 K",
      "boilingPoint": "4.22 K",
      "density": "0.0001785 g/cm3",
      "yearDiscovered": "1895",
      "wikipediaURL": null,
      "localURL": null
    },
    {
      "symbol": "Li",
      "name": "Lithium",
      "atomicMass": "6.94 u",
      "atomicNumber": "3",
      "chemicalGroup": "Alkali metal",
      "period": "2",
      "groupNumber": "1",
      "standardState": "Solid",
      "electronConfiguration": "2s1",
      "oxidationStates": "+1",
      "atomicRadius": "182 pm",
      "electronAffinity": "59.6326 kJ/mol",
      "ionizationEnergy": "520.2 kJ/mol",
      "meltingPoint": "453.65 K",
      "boilingPoint": "1560 K",
      "density": "0.534 g/cm3",
      "yearDiscovered": 1817,
      "wikipediaURL": null,
      "localURL": null
    }
  ]
}
